system,formula,element_A,element_B,ratio_A,ratio_B,total_atoms,lattice_a,density,energy_per_atom,energy_above_hull,is_stable,md_performed,md_avg_temperature,md_temp_fluctuation,md_avg_energy_per_atom,md_volume_change_percent,md_thermally_stable
Os-Re,Os,Os,Re,1.0,0.0,256,16.0,19.7428,,0.0,True,True,989.0080907607319,5.456724316433803,-10.927008734809029,-8.629981098484325,True
Os-Re,Re,Re,Re,1.0,0.0,256,16.0,19.3253,,0.0,True,True,996.9655783030147,6.113898996831401,-12.23843428529339,-7.3355362694657975,True
Os-Re,Re25Os231,Re,Os,0.09765625,0.90234375,256,16.0,19.702,,0.0,True,True,993.1082879953984,6.524439565925986,-11.081332512843757,-10.932942876132321,True
Os-Re,Re19Os45,Re,Os,0.296875,0.703125,256,16.0,19.6188,,0.0,True,True,1014.5073265197975,6.885187375413647,-11.375371768150801,-1.2542345916968245,True
Os-Re,ReOs,Re,Os,0.5,0.5,256,16.0,19.534,,0.0,True,True,996.8857652271142,8.018527804712303,-11.637967733689296,0.21190040556845496,True
Os-Re,Re153Os103,Re,Os,0.59765625,0.40234375,256,16.0,19.4932,,0.0,True,True,994.5767124386007,6.19588304316495,-11.757783407046471,-10.658534177476096,True
Os-Re,Re179Os77,Re,Os,0.69921875,0.30078125,256,16.0,19.4508,,0.0007882024727621229,True,True,991.8821648407642,5.595210445250927,-11.880827550534848,1.4727068730809323,True
Os-Re,Re51Os13,Re,Os,0.796875,0.203125,256,16.0,19.4101,,0.0,True,True,997.2448973204419,6.314045547996224,-12.003806067101749,-2.8318924130076217,True
Os-Re,Re115Os13,Re,Os,0.8984375,0.1015625,256,16.0,19.3677,,0.0,True,True,996.5941751465741,6.310375819031833,-12.122764234189633,-8.503154420215427,True